Step3_Production_with_H                 
           1
    10.400907    0.000000    0.000000
     0.000000   10.400907    0.000000
     0.000000    0.000000   10.400907
   H    Ag   Ba
    56     8    24
Direct configuration=     1
   0.00000000  0.32398111  0.00000000
   0.50000000  0.32398111  0.00000000
   0.00000000  0.82398111  0.00000000
   0.50000000  0.82398111  0.00000000
   0.00000000  0.32398111  0.50000000
   0.50000000  0.32398111  0.50000000
   0.00000000  0.82398111  0.50000000
   0.50000000  0.82398111  0.50000000
   0.00000000  0.17601889  0.00000000
   0.50000000  0.17601889  0.00000000
   0.00000000  0.67601889  0.00000000
   0.50000000  0.67601889  0.00000000
   0.00000000  0.17601889  0.50000000
   0.50000000  0.17601889  0.50000000
   0.00000000  0.67601889  0.50000000
   0.50000000  0.67601889  0.50000000
   0.00000000  0.00000000  0.32398111
   0.50000000  0.00000000  0.32398111
   0.00000000  0.50000000  0.32398111
   0.50000000  0.50000000  0.32398111
   0.00000000  0.00000000  0.82398111
   0.50000000  0.00000000  0.82398111
   0.00000000  0.50000000  0.82398111
   0.50000000  0.50000000  0.82398111
   0.00000000  0.00000000  0.17601889
   0.50000000  0.00000000  0.17601889
   0.00000000  0.50000000  0.17601889
   0.50000000  0.50000000  0.17601889
   0.00000000  0.00000000  0.67601889
   0.50000000  0.00000000  0.67601889
   0.00000000  0.50000000  0.67601889
   0.50000000  0.50000000  0.67601889
   0.32398111  0.00000000  0.00000000
   0.82398111  0.00000000  0.00000000
   0.32398111  0.50000000  0.00000000
   0.82398111  0.50000000  0.00000000
   0.32398111  0.00000000  0.50000000
   0.82398111  0.00000000  0.50000000
   0.32398111  0.50000000  0.50000000
   0.82398111  0.50000000  0.50000000
   0.17601889  0.00000000  0.00000000
   0.67601889  0.00000000  0.00000000
   0.17601889  0.50000000  0.00000000
   0.67601889  0.50000000  0.00000000
   0.17601889  0.00000000  0.50000000
   0.67601889  0.00000000  0.50000000
   0.17601889  0.50000000  0.50000000
   0.67601889  0.50000000  0.50000000
   0.25000000  0.25000000  0.25000000
   0.75000000  0.25000000  0.25000000
   0.25000000  0.75000000  0.25000000
   0.75000000  0.75000000  0.25000000
   0.25000000  0.25000000  0.75000000
   0.75000000  0.25000000  0.75000000
   0.25000000  0.75000000  0.75000000
   0.75000000  0.75000000  0.75000000
   0.00000000  0.00000000  0.00000000
   0.50000000  0.00000000  0.00000000
   0.00000000  0.50000000  0.00000000
   0.50000000  0.50000000  0.00000000
   0.00000000  0.00000000  0.50000000
   0.50000000  0.00000000  0.50000000
   0.00000000  0.50000000  0.50000000
   0.50000000  0.50000000  0.50000000
   0.00000000  0.25000000  0.25000000
   0.50000000  0.25000000  0.25000000
   0.00000000  0.75000000  0.25000000
   0.50000000  0.75000000  0.25000000
   0.00000000  0.25000000  0.75000000
   0.50000000  0.25000000  0.75000000
   0.00000000  0.75000000  0.75000000
   0.50000000  0.75000000  0.75000000
   0.25000000  0.00000000  0.25000000
   0.75000000  0.00000000  0.25000000
   0.25000000  0.50000000  0.25000000
   0.75000000  0.50000000  0.25000000
   0.25000000  0.00000000  0.75000000
   0.75000000  0.00000000  0.75000000
   0.25000000  0.50000000  0.75000000
   0.75000000  0.50000000  0.75000000
   0.25000000  0.25000000  0.00000000
   0.75000000  0.25000000  0.00000000
   0.25000000  0.75000000  0.00000000
   0.75000000  0.75000000  0.00000000
   0.25000000  0.25000000  0.50000000
   0.75000000  0.25000000  0.50000000
   0.25000000  0.75000000  0.50000000
   0.75000000  0.75000000  0.50000000
Direct configuration=     2
  -0.00000001  0.32398091  0.00000000
   0.50000000  0.32398091  0.00000000
   0.00000000  0.82398091 -0.00000000
   0.50000001  0.82398091 -0.00000001
   0.00000000  0.32398091  0.50000000
   0.50000000  0.32398091  0.50000000
  -0.00000000  0.82398092  0.50000000
   0.50000000  0.82398091  0.50000000
  -0.00000000  0.17601909 -0.00000000
   0.50000000  0.17601909  0.00000000
   0.00000001  0.67601909 -0.00000000
   0.50000000  0.67601909  0.00000000
   0.00000001  0.17601909  0.50000000
   0.50000000  0.17601909  0.50000000
  -0.00000000  0.67601909  0.50000000
   0.50000000  0.67601909  0.50000000
   0.00000000  0.00000000  0.32398091
   0.50000000 -0.00000000  0.32398091
   0.00000000  0.50000000  0.32398091
   0.50000000  0.50000000  0.32398091
  -0.00000000 -0.00000000  0.82398091
   0.50000000  0.00000000  0.82398091
  -0.00000000  0.50000000  0.82398091
   0.50000000  0.50000000  0.82398090
   0.00000000 -0.00000000  0.17601909
   0.50000000 -0.00000001  0.17601909
  -0.00000001  0.50000000  0.17601909
   0.50000001  0.50000000  0.17601909
   0.00000000 -0.00000000  0.67601909
   0.50000000  0.00000000  0.67601909
   0.00000001  0.50000000  0.67601909
   0.50000000  0.50000000  0.67601909
   0.32398091  0.00000000 -0.00000000
   0.82398091 -0.00000000  0.00000000
   0.32398091  0.50000000  0.00000001
   0.82398091  0.50000000 -0.00000000
   0.32398091  0.00000000  0.50000000
   0.82398091  0.00000000  0.50000000
   0.32398091  0.50000000  0.50000001
   0.82398091  0.50000000  0.49999999
   0.17601909  0.00000000 -0.00000001
   0.67601909  0.00000000  0.00000001
   0.17601909  0.50000000 -0.00000000
   0.67601909  0.50000000 -0.00000000
   0.17601909 -0.00000000  0.49999999
   0.67601909 -0.00000000  0.50000001
   0.17601909  0.50000000  0.50000000
   0.67601909  0.50000000  0.50000000
   0.25000000  0.25000000  0.25000000
   0.75000000  0.25000000  0.25000000
   0.25000000  0.75000000  0.25000000
   0.75000000  0.75000000  0.25000000
   0.25000000  0.25000000  0.75000000
   0.74999999  0.25000000  0.75000000
   0.25000000  0.75000000  0.75000000
   0.75000000  0.75000000  0.75000000
   0.00000000 -0.00000000 -0.00000000
   0.50000000 -0.00000000  0.00000000
   0.00000000  0.50000000  0.00000000
   0.50000000  0.50000000  0.00000000
   0.00000000 -0.00000000  0.50000000
   0.50000000 -0.00000000  0.50000000
   0.00000000  0.50000000  0.50000000
   0.50000000  0.50000000  0.50000000
   0.00000000  0.25000000  0.25000000
   0.50000000  0.25000000  0.25000000
  -0.00000000  0.75000000  0.25000000
   0.50000000  0.75000000  0.25000000
   0.00000000  0.25000000  0.75000000
   0.50000000  0.25000000  0.75000000
  -0.00000000  0.75000000  0.75000000
   0.50000000  0.75000000  0.75000000
   0.25000000 -0.00000000  0.25000000
   0.75000000 -0.00000000  0.25000000
   0.25000000  0.50000000  0.25000000
   0.75000000  0.50000000  0.25000000
   0.25000000  0.00000000  0.75000000
   0.75000000 -0.00000000  0.75000000
   0.25000000  0.50000000  0.75000000
   0.75000000  0.50000000  0.75000000
   0.25000000  0.25000000  0.00000000
   0.75000000  0.25000000 -0.00000000
   0.25000000  0.75000000 -0.00000000
   0.75000000  0.75000000 -0.00000000
   0.25000000  0.25000000  0.50000000
   0.75000000  0.25000000  0.50000000
   0.25000000  0.75000000  0.50000000
   0.75000000  0.75000000  0.50000000
Direct configuration=     3
  -0.00000001  0.32398030  0.00000000
   0.50000000  0.32398030  0.00000000
   0.00000000  0.82398030 -0.00000001
   0.50000001  0.82398031 -0.00000001
   0.00000001  0.32398031  0.49999999
   0.50000001  0.32398030  0.50000001
  -0.00000000  0.82398031  0.50000000
   0.50000000  0.82398030  0.50000000
  -0.00000000  0.17601970 -0.00000000
   0.50000000  0.17601969  0.00000001
   0.00000001  0.67601970 -0.00000000
   0.50000000  0.67601970  0.00000001
   0.00000001  0.17601969  0.50000000
   0.50000001  0.17601970  0.50000001
  -0.00000001  0.67601969  0.50000000
   0.50000000  0.67601970  0.49999999
   0.00000000  0.00000001  0.32398030
   0.50000000 -0.00000000  0.32398030
   0.00000001  0.49999999  0.32398030
   0.50000000  0.49999999  0.32398030
  -0.00000001 -0.00000001  0.82398030
   0.50000000  0.00000001  0.82398029
  -0.00000000  0.49999999  0.82398030
   0.50000000  0.50000000  0.82398029
   0.00000000 -0.00000000  0.17601970
   0.49999999 -0.00000001  0.17601970
  -0.00000001  0.50000001  0.17601970
   0.50000001  0.50000000  0.17601970
   0.00000001 -0.00000000  0.67601970
   0.50000001  0.00000001  0.67601970
   0.00000001  0.50000000  0.67601970
   0.50000001  0.50000001  0.67601970
   0.32398030  0.00000000 -0.00000000
   0.82398030 -0.00000001  0.00000001
   0.32398030  0.49999999  0.00000001
   0.82398031  0.50000001 -0.00000000
   0.32398031  0.00000001  0.49999999
   0.82398031  0.00000001  0.50000001
   0.32398031  0.50000000  0.50000001
   0.82398030  0.50000000  0.49999999
   0.17601970  0.00000000 -0.00000001
   0.67601969  0.00000000  0.00000002
   0.17601969  0.50000000  0.00000000
   0.67601970  0.50000000 -0.00000001
   0.17601969 -0.00000000  0.49999998
   0.67601969 -0.00000000  0.50000001
   0.17601970  0.50000000  0.50000000
   0.67601969  0.50000000  0.50000000
   0.25000000  0.25000000  0.24999999
   0.75000000  0.25000001  0.25000000
   0.25000001  0.75000000  0.25000000
   0.74999999  0.75000000  0.25000000
   0.25000000  0.25000000  0.75000000
   0.74999999  0.25000001  0.75000000
   0.25000000  0.74999999  0.75000000
   0.75000000  0.75000000  0.75000001
   0.00000000 -0.00000000 -0.00000000
   0.50000000 -0.00000000  0.00000000
   0.00000000  0.50000000  0.00000000
   0.50000000  0.50000000  0.00000000
   0.00000000 -0.00000000  0.50000000
   0.50000000 -0.00000000  0.50000000
   0.00000000  0.50000000  0.50000000
   0.50000000  0.50000000  0.50000000
   0.00000000  0.25000000  0.25000000
   0.50000000  0.25000000  0.25000000
  -0.00000000  0.75000000  0.25000000
   0.50000000  0.75000000  0.25000000
   0.00000000  0.25000000  0.75000000
   0.50000000  0.25000000  0.75000000
  -0.00000000  0.75000000  0.75000000
   0.50000000  0.75000000  0.75000000
   0.25000000 -0.00000000  0.25000000
   0.75000000 -0.00000000  0.25000000
   0.25000000  0.50000000  0.25000000
   0.75000000  0.50000000  0.25000000
   0.25000000  0.00000000  0.75000000
   0.75000000 -0.00000000  0.75000000
   0.25000000  0.50000000  0.75000000
   0.75000000  0.50000000  0.75000000
   0.25000000  0.25000000  0.00000000
   0.75000000  0.25000000 -0.00000000
   0.25000000  0.75000000  0.00000000
   0.75000000  0.75000000 -0.00000000
   0.25000000  0.25000000  0.50000000
   0.75000000  0.25000000  0.50000000
   0.25000000  0.75000000  0.50000000
   0.75000000  0.75000000  0.50000000
Direct configuration=     4
  -0.00000002  0.32397928  0.00000000
   0.50000000  0.32397929  0.00000001
   0.00000001  0.82397929 -0.00000001
   0.50000002  0.82397929 -0.00000001
   0.00000001  0.32397931  0.49999999
   0.50000001  0.32397929  0.50000001
  -0.00000001  0.82397931  0.50000000
   0.49999999  0.82397929  0.50000000
   0.00000000  0.17602071 -0.00000001
   0.50000000  0.17602071  0.00000001
   0.00000001  0.67602072 -0.00000000
   0.50000001  0.67602071  0.00000001
   0.00000002  0.17602069  0.49999999
   0.50000001  0.17602071  0.50000001
  -0.00000001  0.67602069  0.50000001
   0.50000000  0.67602071  0.49999999
  -0.00000000  0.00000001  0.32397929
   0.50000000 -0.00000000  0.32397929
   0.00000001  0.49999999  0.32397929
   0.50000000  0.49999999  0.32397929
  -0.00000001 -0.00000001  0.82397929
   0.50000000  0.00000001  0.82397928
  -0.00000000  0.49999999  0.82397929
   0.49999999  0.50000000  0.82397928
   0.00000000 -0.00000000  0.17602071
   0.49999999 -0.00000002  0.17602072
  -0.00000002  0.50000001  0.17602071
   0.50000002  0.50000000  0.17602072
   0.00000001 -0.00000000  0.67602071
   0.50000001  0.00000001  0.67602072
   0.00000002  0.49999999  0.67602071
   0.50000001  0.50000001  0.67602071
   0.32397929  0.00000000 -0.00000001
   0.82397929 -0.00000001  0.00000001
   0.32397929  0.49999999  0.00000002
   0.82397930  0.50000001  0.00000000
   0.32397930  0.00000001  0.49999999
   0.82397930  0.00000001  0.50000002
   0.32397931  0.50000000  0.50000002
   0.82397929  0.50000000  0.49999998
   0.17602071  0.00000000 -0.00000001
   0.67602071  0.00000001  0.00000002
   0.17602070  0.50000000  0.00000000
   0.67602072  0.49999999 -0.00000001
   0.17602070 -0.00000001  0.49999997
   0.67602070 -0.00000001  0.50000002
   0.17602071  0.50000001  0.50000000
   0.67602069  0.50000000  0.50000000
   0.25000000  0.25000000  0.24999999
   0.75000000  0.25000001  0.25000001
   0.25000001  0.75000000  0.25000000
   0.75000000  0.74999999  0.25000000
   0.25000000  0.25000001  0.75000000
   0.74999998  0.25000000  0.75000000
   0.25000000  0.74999999  0.75000000
   0.74999999  0.75000001  0.75000001
   0.00000000 -0.00000000 -0.00000000
   0.50000000 -0.00000000  0.00000000
   0.00000000  0.50000000  0.00000000
   0.50000000  0.50000000  0.00000000
   0.00000000 -0.00000000  0.50000000
   0.50000000  0.00000000  0.50000000
   0.00000000  0.50000000  0.50000000
   0.50000000  0.50000000  0.50000000
   0.00000000  0.25000000  0.25000000
   0.50000000  0.25000000  0.25000000
  -0.00000000  0.75000000  0.25000000
   0.50000000  0.75000000  0.25000000
   0.00000000  0.25000000  0.75000000
   0.50000000  0.25000000  0.75000000
  -0.00000000  0.75000000  0.75000000
   0.50000000  0.75000000  0.75000000
   0.25000000  0.00000000  0.25000000
   0.75000000  0.00000000  0.25000000
   0.25000000  0.50000000  0.25000000
   0.75000000  0.50000000  0.25000000
   0.25000000  0.00000000  0.75000000
   0.75000000  0.00000000  0.75000000
   0.25000000  0.50000000  0.75000000
   0.75000000  0.50000000  0.75000000
   0.25000000  0.25000000  0.00000000
   0.75000000  0.25000000 -0.00000000
   0.25000000  0.75000000  0.00000000
   0.75000000  0.75000000 -0.00000000
   0.25000000  0.25000000  0.50000000
   0.75000000  0.25000000  0.50000000
   0.25000000  0.75000000  0.50000000
   0.75000000  0.75000000  0.50000000
Direct configuration=     5
  -0.00000002  0.32397789  0.00000000
   0.50000000  0.32397790  0.00000001
   0.00000002  0.82397790 -0.00000000
   0.50000003  0.82397789 -0.00000001
   0.00000001  0.32397792  0.49999999
   0.50000001  0.32397789  0.50000003
  -0.00000002  0.82397791  0.50000000
   0.49999999  0.82397789  0.49999999
   0.00000000  0.17602211 -0.00000001
   0.50000000  0.17602210  0.00000001
   0.00000002  0.67602211 -0.00000000
   0.50000002  0.67602211  0.00000001
   0.00000002  0.17602209  0.49999998
   0.50000001  0.17602211  0.50000000
  -0.00000001  0.67602208  0.50000002
   0.50000000  0.67602211  0.49999999
  -0.00000001  0.00000001  0.32397789
   0.50000000  0.00000000  0.32397789
   0.00000002  0.50000000  0.32397789
   0.50000000  0.49999998  0.32397789
  -0.00000001 -0.00000001  0.82397789
   0.49999999  0.00000002  0.82397788
  -0.00000001  0.49999999  0.82397789
   0.49999999  0.50000000  0.82397788
   0.00000000  0.00000000  0.17602211
   0.49999999 -0.00000002  0.17602212
  -0.00000003  0.50000002  0.17602210
   0.50000002  0.50000000  0.17602212
  -0.00000000  0.00000000  0.67602210
   0.50000001  0.00000001  0.67602212
   0.00000001  0.49999998  0.67602211
   0.50000002  0.50000001  0.67602210
   0.32397790 -0.00000000 -0.00000002
   0.82397790 -0.00000000  0.00000001
   0.32397790  0.49999999  0.00000002
   0.82397791  0.50000001  0.00000001
   0.32397792  0.00000001  0.49999999
   0.82397792  0.00000000  0.50000003
   0.32397792  0.49999999  0.50000003
   0.82397790  0.50000000  0.49999997
   0.17602210  0.00000001 -0.00000001
   0.67602210  0.00000002  0.00000003
   0.17602209  0.50000000  0.00000001
   0.67602211  0.49999999 -0.00000002
   0.17602208 -0.00000001  0.49999997
   0.67602209 -0.00000001  0.50000003
   0.17602210  0.50000001  0.50000000
   0.67602208  0.49999999  0.50000000
   0.25000000  0.25000000  0.24999999
   0.75000000  0.25000001  0.25000001
   0.25000000  0.75000000  0.25000001
   0.74999999  0.74999998  0.25000000
   0.25000000  0.25000001  0.74999999
   0.74999999  0.25000000  0.75000000
   0.25000000  0.74999999  0.75000001
   0.74999999  0.75000001  0.75000000
   0.00000000 -0.00000000 -0.00000000
   0.50000000 -0.00000000  0.00000000
   0.00000000  0.50000000  0.00000000
   0.50000000  0.50000000  0.00000000
   0.00000000 -0.00000000  0.50000000
   0.50000000 -0.00000000  0.50000000
   0.00000000  0.50000000  0.50000000
   0.50000000  0.50000000  0.50000000
   0.00000000  0.25000000  0.25000000
   0.50000000  0.25000000  0.25000000
  -0.00000000  0.75000000  0.25000000
   0.50000000  0.75000000  0.25000000
   0.00000000  0.25000000  0.75000000
   0.50000000  0.25000000  0.75000000
  -0.00000000  0.75000000  0.75000000
   0.50000000  0.75000000  0.75000000
   0.25000000 -0.00000000  0.25000000
   0.75000000  0.00000000  0.25000000
   0.25000000  0.50000000  0.25000000
   0.75000000  0.50000000  0.25000000
   0.25000000  0.00000000  0.75000000
   0.75000000  0.00000000  0.75000000
   0.25000000  0.50000000  0.75000000
   0.75000000  0.50000000  0.75000000
   0.25000000  0.25000000  0.00000000
   0.75000000  0.25000000 -0.00000000
   0.25000000  0.75000000  0.00000000
   0.75000000  0.75000000 -0.00000000
   0.25000000  0.25000000  0.50000000
   0.75000000  0.25000000  0.50000000
   0.25000000  0.75000000  0.50000000
   0.75000000  0.75000000  0.50000000
Direct configuration=     6
  -0.00000003  0.32397613  0.00000001
   0.50000000  0.32397615  0.00000001
   0.00000003  0.82397615 -0.00000001
   0.50000004  0.82397613 -0.00000001
   0.00000001  0.32397618  0.49999999
   0.50000002  0.32397613  0.50000004
  -0.00000003  0.82397617  0.50000000
   0.49999999  0.82397615  0.50000000
   0.00000000  0.17602387 -0.00000002
   0.50000000  0.17602384  0.00000001
   0.00000004  0.67602387 -0.00000000
   0.50000003  0.67602385  0.00000001
   0.00000002  0.17602382  0.49999997
   0.50000001  0.17602386  0.49999999
  -0.00000002  0.67602382  0.50000005
   0.50000001  0.67602385  0.49999998
  -0.00000001  0.00000001  0.32397613
   0.50000001  0.00000000  0.32397615
   0.00000004  0.50000000  0.32397614
   0.49999999  0.49999998  0.32397614
   0.00000001 -0.00000001  0.82397614
   0.49999999  0.00000002  0.82397612
  -0.00000002  0.49999999  0.82397614
   0.49999999  0.50000000  0.82397612
   0.00000000  0.00000002  0.17602386
   0.49999998 -0.00000002  0.17602387
  -0.00000003  0.50000003  0.17602385
   0.50000001  0.49999998  0.17602387
  -0.00000001  0.00000000  0.67602386
   0.50000001  0.00000000  0.67602387
   0.00000001  0.49999997  0.67602387
   0.50000002  0.50000001  0.67602385
   0.32397615 -0.00000001 -0.00000003
   0.82397616  0.00000000  0.00000000
   0.32397615  0.49999999  0.00000002
   0.82397617  0.50000001  0.00000002
   0.32397618  0.00000002  0.49999998
   0.82397618 -0.00000000  0.50000005
   0.32397618  0.49999999  0.50000004
   0.82397616  0.50000000  0.49999996
   0.17602385  0.00000002 -0.00000000
   0.67602385  0.00000003  0.00000004
   0.17602383  0.50000000  0.00000003
   0.67602386  0.49999999 -0.00000002
   0.17602382 -0.00000002  0.49999997
   0.67602382 -0.00000002  0.50000004
   0.17602385  0.50000001  0.49999999
   0.67602381  0.49999999  0.50000001
   0.25000000  0.25000001  0.24999998
   0.75000001  0.25000001  0.25000002
   0.25000000  0.74999999  0.25000001
   0.74999999  0.74999997  0.25000001
   0.25000000  0.25000001  0.74999998
   0.74999999  0.25000000  0.75000000
   0.24999999  0.74999999  0.75000002
   0.74999999  0.75000001  0.74999999
   0.00000000 -0.00000000 -0.00000000
   0.50000000 -0.00000000  0.00000000
   0.00000000  0.50000000  0.00000000
   0.50000000  0.50000000  0.00000000
   0.00000000 -0.00000000  0.50000000
   0.50000000 -0.00000000  0.50000000
   0.00000000  0.50000000  0.50000000
   0.50000000  0.50000000  0.50000000
   0.00000000  0.25000000  0.25000000
   0.50000000  0.25000000  0.25000000
  -0.00000000  0.75000000  0.25000000
   0.50000000  0.75000000  0.25000000
   0.00000000  0.25000000  0.75000000
   0.50000000  0.25000000  0.75000000
  -0.00000000  0.75000000  0.75000000
   0.50000000  0.75000000  0.75000000
   0.25000000 -0.00000000  0.25000000
   0.75000000  0.00000000  0.25000000
   0.25000000  0.50000000  0.25000000
   0.75000000  0.50000000  0.25000000
   0.25000000  0.00000000  0.75000000
   0.75000000 -0.00000000  0.75000000
   0.25000000  0.50000000  0.75000000
   0.75000000  0.50000000  0.75000000
   0.25000000  0.25000000  0.00000000
   0.75000000  0.25000000 -0.00000000
   0.25000000  0.75000000  0.00000000
   0.75000000  0.75000000 -0.00000000
   0.25000000  0.25000000  0.50000000
   0.75000000  0.25000000  0.50000000
   0.25000000  0.75000000  0.50000000
   0.75000000  0.75000000  0.50000000
Direct configuration=     7
  -0.00000004  0.32397404  0.00000002
   0.50000000  0.32397407  0.00000001
   0.00000005  0.82397406 -0.00000001
   0.50000005  0.82397402 -0.00000001
   0.00000001  0.32397409  0.49999999
   0.50000004  0.32397404  0.50000005
  -0.00000005  0.82397408  0.50000000
   0.49999999  0.82397406  0.50000000
  -0.00000000  0.17602596 -0.00000003
   0.50000001  0.17602593  0.00000000
   0.00000005  0.67602596 -0.00000000
   0.50000004  0.67602594  0.00000001
   0.00000003  0.17602590  0.49999996
   0.50000002  0.17602596  0.49999998
  -0.00000001  0.67602590  0.50000007
   0.50000001  0.67602593  0.49999998
  -0.00000003  0.00000001  0.32397403
   0.50000002 -0.00000000  0.32397407
   0.00000005  0.50000001  0.32397404
   0.49999999  0.49999999  0.32397405
   0.00000002 -0.00000001  0.82397405
   0.49999998  0.00000003  0.82397401
  -0.00000003  0.49999999  0.82397404
   0.49999998  0.50000000  0.82397401
   0.00000001  0.00000004  0.17602595
   0.49999997 -0.00000003  0.17602597
  -0.00000004  0.50000005  0.17602595
   0.50000001  0.49999996  0.17602597
  -0.00000002  0.00000001  0.67602595
   0.50000001 -0.00000000  0.67602597
   0.00000001  0.49999995  0.67602597
   0.50000002  0.50000001  0.67602594
   0.32397405 -0.00000001 -0.00000004
   0.82397407  0.00000000 -0.00000001
   0.32397407  0.50000000  0.00000001
   0.82397408  0.50000001  0.00000004
   0.32397410  0.00000002  0.49999998
   0.82397409 -0.00000002  0.50000007
   0.32397409  0.49999998  0.50000005
   0.82397407  0.50000001  0.49999995
   0.17602594  0.00000003  0.00000001
   0.67602595  0.00000004  0.00000004
   0.17602592  0.50000000  0.00000005
   0.67602595  0.49999998 -0.00000002
   0.17602590 -0.00000003  0.49999996
   0.67602589 -0.00000002  0.50000004
   0.17602595  0.50000001  0.49999998
   0.67602589  0.49999998  0.50000002
   0.24999999  0.25000002  0.24999998
   0.75000002  0.25000002  0.25000002
   0.24999999  0.74999998  0.25000002
   0.74999998  0.74999996  0.25000001
   0.25000000  0.25000001  0.74999997
   0.74999999  0.25000001  0.75000001
   0.24999999  0.75000000  0.75000003
   0.74999998  0.75000001  0.74999998
   0.00000000 -0.00000000 -0.00000000
   0.50000000  0.00000000  0.00000000
   0.00000000  0.50000000  0.00000000
   0.50000000  0.50000000  0.00000000
   0.00000000 -0.00000000  0.50000000
   0.50000000 -0.00000000  0.50000000
   0.00000000  0.50000000  0.50000000
   0.50000000  0.50000000  0.50000000
   0.00000000  0.25000000  0.25000000
   0.50000000  0.25000000  0.25000000
  -0.00000000  0.75000000  0.25000000
   0.50000000  0.75000000  0.25000000
   0.00000000  0.25000000  0.75000000
   0.50000000  0.25000000  0.75000000
  -0.00000000  0.75000000  0.75000000
   0.50000000  0.75000000  0.75000000
   0.25000000 -0.00000000  0.25000000
   0.75000000  0.00000000  0.25000000
   0.25000000  0.50000000  0.25000000
   0.75000000  0.50000000  0.25000000
   0.25000000  0.00000000  0.75000000
   0.75000000 -0.00000000  0.75000000
   0.25000000  0.50000000  0.75000000
   0.75000000  0.50000000  0.75000000
   0.25000000  0.25000000  0.00000000
   0.75000000  0.25000000 -0.00000000
   0.25000000  0.75000000  0.00000000
   0.75000000  0.75000000 -0.00000000
   0.25000000  0.25000000  0.50000000
   0.75000000  0.25000000  0.50000000
   0.25000000  0.75000000  0.50000000
   0.75000000  0.75000000  0.50000000
Direct configuration=     8
  -0.00000005  0.32397162  0.00000003
   0.49999999  0.32397169  0.00000000
   0.00000005  0.82397166 -0.00000001
   0.50000006  0.82397158 -0.00000000
   0.00000001  0.32397169  0.50000001
   0.50000006  0.32397161  0.50000007
  -0.00000008  0.82397165  0.49999999
   0.49999999  0.82397167  0.49999999
  -0.00000001  0.17602835 -0.00000004
   0.50000001  0.17602834 -0.00000002
   0.00000007  0.67602837 -0.00000001
   0.50000003  0.67602834  0.00000000
   0.00000002  0.17602824  0.49999994
   0.50000002  0.17602836  0.49999997
  -0.00000001  0.67602827  0.50000010
   0.50000003  0.67602832  0.49999997
  -0.00000004  0.00000000  0.32397164
   0.50000002 -0.00000001  0.32397168
   0.00000007  0.50000003  0.32397162
   0.49999999  0.49999999  0.32397165
   0.00000003 -0.00000002  0.82397164
   0.49999998  0.00000004  0.82397160
  -0.00000004  0.49999999  0.82397164
   0.49999998  0.50000000  0.82397157
   0.00000001  0.00000006  0.17602835
   0.49999995 -0.00000002  0.17602839
  -0.00000004  0.50000006  0.17602837
   0.50000000  0.49999995  0.17602840
  -0.00000002  0.00000002  0.67602839
   0.50000002 -0.00000001  0.67602838
   0.00000001  0.49999995  0.67602839
   0.50000002  0.50000003  0.67602835
   0.32397163 -0.00000002 -0.00000005
   0.82397170  0.00000001 -0.00000002
   0.32397170  0.50000000 -0.00000001
   0.82397171  0.50000001  0.00000007
   0.32397174  0.00000003  0.49999998
   0.82397166 -0.00000004  0.50000009
   0.32397170  0.49999998  0.50000007
   0.82397166  0.50000001  0.49999993
   0.17602836  0.00000004  0.00000002
   0.67602837  0.00000004  0.00000006
   0.17602833  0.50000003  0.00000008
   0.67602839  0.49999996 -0.00000003
   0.17602829 -0.00000004  0.49999995
   0.67602824 -0.00000004  0.50000006
   0.17602837  0.50000001  0.49999996
   0.67602827  0.49999998  0.50000003
   0.24999999  0.25000002  0.24999998
   0.75000002  0.25000002  0.25000002
   0.24999998  0.74999997  0.25000002
   0.74999998  0.74999995  0.25000001
   0.25000000  0.25000001  0.74999995
   0.74999999  0.25000001  0.75000001
   0.24999998  0.75000000  0.75000004
   0.74999998  0.75000001  0.74999997
   0.00000000 -0.00000000 -0.00000000
   0.50000000  0.00000000  0.00000000
   0.00000000  0.50000000  0.00000000
   0.50000000  0.50000000 -0.00000000
   0.00000000  0.00000000  0.50000000
   0.50000000 -0.00000000  0.50000000
   0.00000000  0.50000000  0.50000000
   0.50000000  0.50000000  0.50000000
   0.00000000  0.25000000  0.25000000
   0.50000000  0.25000000  0.25000000
  -0.00000000  0.75000000  0.25000000
   0.50000000  0.75000000  0.25000000
   0.00000000  0.25000000  0.75000000
   0.50000000  0.25000000  0.75000000
  -0.00000000  0.75000000  0.75000000
   0.50000000  0.75000000  0.75000000
   0.25000000 -0.00000000  0.25000000
   0.75000000  0.00000000  0.25000000
   0.25000000  0.50000000  0.25000000
   0.75000000  0.50000000  0.25000000
   0.25000000  0.00000000  0.75000000
   0.75000000 -0.00000000  0.75000000
   0.25000000  0.50000000  0.75000000
   0.75000000  0.50000000  0.75000000
   0.25000000  0.25000000  0.00000000
   0.75000000  0.25000000 -0.00000000
   0.25000000  0.75000000  0.00000000
   0.75000000  0.75000000 -0.00000000
   0.25000000  0.25000000  0.50000000
   0.75000000  0.25000000  0.50000000
   0.25000000  0.75000000  0.50000000
   0.75000000  0.75000000  0.50000000
Direct configuration=     9
  -0.00000007  0.32396889  0.00000004
   0.49999998  0.32396902  0.00000000
   0.00000005  0.82396899 -0.00000000
   0.50000008  0.82396887  0.00000001
   0.00000002  0.32396900  0.50000002
   0.50000008  0.32396889  0.50000010
  -0.00000011  0.82396894  0.49999998
   0.49999998  0.82396897  0.49999998
  -0.00000002  0.17603107 -0.00000003
   0.50000000  0.17603104 -0.00000004
   0.00000009  0.67603109 -0.00000002
   0.50000004  0.67603101 -0.00000000
  -0.00000001  0.17603087  0.49999993
   0.50000003  0.17603106  0.49999994
   0.00000001  0.67603093  0.50000012
   0.50000005  0.67603103  0.49999996
  -0.00000003 -0.00000001  0.32396897
   0.50000001 -0.00000002  0.32396900
   0.00000008  0.50000004  0.32396893
   0.49999999  0.50000000  0.32396898
   0.00000005 -0.00000003  0.82396892
   0.49999998  0.00000003  0.82396889
  -0.00000006  0.49999998  0.82396894
   0.49999998  0.50000000  0.82396883
   0.00000003  0.00000007  0.17603102
   0.49999993 -0.00000001  0.17603110
  -0.00000005  0.50000007  0.17603108
   0.49999999  0.49999994  0.17603111
  -0.00000002  0.00000003  0.67603111
   0.50000004 -0.00000003  0.67603108
   0.00000000  0.49999993  0.67603112
   0.50000002  0.50000005  0.67603106
   0.32396891 -0.00000003 -0.00000008
   0.82396901  0.00000001 -0.00000002
   0.32396902  0.50000000 -0.00000002
   0.82396905  0.50000001  0.00000009
   0.32396908  0.00000005  0.50000000
   0.82396894 -0.00000006  0.50000011
   0.32396902  0.49999998  0.50000009
   0.82396898  0.50000001  0.49999992
   0.17603107  0.00000004  0.00000003
   0.67603111  0.00000004  0.00000007
   0.17603103  0.50000006  0.00000011
   0.67603112  0.49999994 -0.00000004
   0.17603098 -0.00000007  0.49999995
   0.67603089 -0.00000005  0.50000008
   0.17603108  0.50000002  0.49999997
   0.67603095  0.49999996  0.50000003
   0.24999998  0.25000003  0.24999998
   0.75000004  0.25000002  0.25000002
   0.24999997  0.74999996  0.25000001
   0.74999997  0.74999993  0.25000002
   0.24999999  0.25000001  0.74999994
   0.74999999  0.25000000  0.75000001
   0.24999997  0.75000000  0.75000005
   0.74999998  0.75000002  0.74999997
   0.00000000 -0.00000000 -0.00000000
   0.50000000  0.00000000 -0.00000000
   0.00000000  0.50000000 -0.00000000
   0.50000000  0.50000000 -0.00000000
   0.00000000  0.00000000  0.50000000
   0.50000000 -0.00000000  0.50000000
   0.00000000  0.50000000  0.50000000
   0.50000000  0.50000000  0.50000000
   0.00000000  0.25000000  0.25000000
   0.50000000  0.25000000  0.25000000
  -0.00000000  0.75000000  0.25000000
   0.50000000  0.75000000  0.25000000
   0.00000000  0.25000000  0.75000000
   0.50000000  0.25000000  0.75000000
  -0.00000000  0.75000000  0.75000000
   0.50000000  0.75000000  0.75000000
   0.25000000 -0.00000000  0.25000000